         Total DFT energy =     -449.002799805197
@ Step       Energy      Delta E   Gmax     Grms     Xrms     Xmax   Walltime
@ ---- ---------------- -------- -------- -------- -------- -------- --------
@    0    -449.00279981  0.0D+00  0.00778  0.00286  0.00000  0.00000     10.1
         Total DFT energy =     -449.003918704489
         Total DFT energy =     -449.003952776023
@    1    -449.00395278 -1.2D-03  0.00277  0.00075  0.02195  0.04352     26.1
         Total DFT energy =     -449.004052681376
         Total DFT energy =     -449.004060412627
@    2    -449.00406041 -1.1D-04  0.00048  0.00016  0.01206  0.02360     43.1
         Total DFT energy =     -449.004068574155
         Total DFT energy =   -449.004068574155
@    3    -449.00406857 -8.2D-06  0.00011  0.00003  0.00270  0.00507     53.1
         Total DFT energy =     -449.004069230003
         Total DFT energy =   -449.004069230003
@    4    -449.00406923 -6.6D-07  0.00009  0.00002  0.00038  0.00104     62.4
@    4    -449.00406923 -6.6D-07  0.00009  0.00002  0.00038  0.00104     62.4

 Output coordinates in angstroms (scale by  1.889725989 to convert to a.u.)

  No.       Tag          Charge          X              Y              Z
 ---- ---------------- ---------- -------------- -------------- --------------
    1 C                    6.0000     0.38823357     1.37025481    -1.24778194
    2 Si                  14.0000    -0.00062633    -0.00045183    -0.00025775
    3 C                    6.0000     1.39377448    -0.10402178     1.27712850
    4 C                    6.0000    -1.63284959     0.38994246     0.87716385
    5 C                    6.0000    -0.14998772    -1.65643489    -0.90658273
    6 H                    1.0000     0.48204112     2.34804595    -0.74546049
    7 H                    1.0000    -0.40760918     1.45589124    -2.00690990
    8 H                    1.0000     1.33675078     1.16972026    -1.77446243
    9 H                    1.0000     1.50593885     0.84882663     1.82177892
   10 H                    1.0000     2.35887035    -0.33088625     0.79304060
   11 H                    1.0000     1.19407395    -0.89561617     2.01910595
   12 H                    1.0000    -1.57337082     1.35173863     1.41441230
   13 H                    1.0000    -1.88665728    -0.39225950     1.61263617
   14 H                    1.0000    -2.46543295     0.45776797     0.15653095
   15 H                    1.0000     0.78905075    -1.91004782    -1.42728911
   16 H                    1.0000    -0.95542639    -1.62684633    -1.65985057
   17 H                    1.0000    -0.37674851    -2.47577942    -0.20333427

         Total DFT energy =     -449.004067508914

                       DFT Final Molecular Orbital Analysis
                       ------------------------------------

 Vector    1  Occ=2.000000D+00  E=-6.609144D+01

 Vector   55  Occ=0.000000D+00  E= 5.870583D-01

 Vector   56  Occ=0.000000D+00  E= 5.873226D-01

 Vector   57  Occ=0.000000D+00  E= 6.266010D-01

 Vector   58  Occ=0.000000D+00  E= 6.465169D-01

 Vector   59  Occ=0.000000D+00  E= 6.465893D-01

 Vector   60  Occ=0.000000D+00  E= 6.545235D-01

 Vector   61  Occ=0.000000D+00  E= 6.605504D-01

 Vector   62  Occ=0.000000D+00  E= 6.605884D-01

 Vector   63  Occ=0.000000D+00  E= 6.608079D-01

 Vector   64  Occ=0.000000D+00  E= 6.885346D-01

 Vector   65  Occ=0.000000D+00  E= 6.886130D-01

 Vector   66  Occ=0.000000D+00  E= 6.886509D-01

 Vector   67  Occ=0.000000D+00  E= 7.005462D-01

 Vector   68  Occ=0.000000D+00  E= 7.006036D-01

 Vector   69  Occ=0.000000D+00  E= 7.514267D-01

 Vector   70  Occ=0.000000D+00  E= 7.515618D-01

 Vector   71  Occ=0.000000D+00  E= 7.516028D-01

 Vector   72  Occ=0.000000D+00  E= 8.787573D-01

 Vector   73  Occ=0.000000D+00  E= 8.961670D-01

 Vector   74  Occ=0.000000D+00  E= 8.962233D-01

 Vector   75  Occ=0.000000D+00  E= 8.962901D-01

 Vector   76  Occ=0.000000D+00  E= 9.623305D-01

 Vector   77  Occ=0.000000D+00  E= 9.627641D-01

 Vector   78  Occ=0.000000D+00  E= 9.630344D-01

 Vector   79  Occ=0.000000D+00  E= 1.185647D+00

 Vector   80  Occ=0.000000D+00  E= 1.185699D+00

 Vector   81  Occ=0.000000D+00  E= 1.185717D+00

 Vector   82  Occ=0.000000D+00  E= 1.262320D+00

 Vector   83  Occ=0.000000D+00  E= 1.262461D+00

 Vector   84  Occ=0.000000D+00  E= 1.461903D+00

 Vector   85  Occ=0.000000D+00  E= 1.462481D+00

 Vector   86  Occ=0.000000D+00  E= 1.463067D+00

 Vector   87  Occ=0.000000D+00  E= 1.537010D+00

 Vector   88  Occ=0.000000D+00  E= 1.537551D+00

 Vector   89  Occ=0.000000D+00  E= 1.537741D+00

 Vector   90  Occ=0.000000D+00  E= 1.537836D+00

 Vector   91  Occ=0.000000D+00  E= 1.715879D+00

 Vector   92  Occ=0.000000D+00  E= 1.716023D+00

 Vector   93  Occ=0.000000D+00  E= 1.737893D+00

 Vector   94  Occ=0.000000D+00  E= 1.737969D+00

 Vector   95  Occ=0.000000D+00  E= 1.738152D+00

 Vector   96  Occ=0.000000D+00  E= 1.764343D+00

 Vector   97  Occ=0.000000D+00  E= 1.820341D+00

 Vector   98  Occ=0.000000D+00  E= 1.820364D+00

 Vector   99  Occ=0.000000D+00  E= 1.820416D+00

 Vector  100  Occ=0.000000D+00  E= 1.920946D+00

 Vector  101  Occ=0.000000D+00  E= 1.921137D+00

 Vector  102  Occ=0.000000D+00  E= 1.921162D+00

 Vector  103  Occ=0.000000D+00  E= 1.931578D+00

 Vector  104  Occ=0.000000D+00  E= 1.931624D+00

 Vector  105  Occ=0.000000D+00  E= 1.931813D+00

 Vector  106  Occ=0.000000D+00  E= 1.976773D+00

 Vector  107  Occ=0.000000D+00  E= 1.977034D+00

 Vector  108  Occ=0.000000D+00  E= 1.977206D+00

 Vector  109  Occ=0.000000D+00  E= 2.022674D+00

 Vector  110  Occ=0.000000D+00  E= 2.022835D+00

 Vector  111  Occ=0.000000D+00  E= 2.213101D+00

 Vector  112  Occ=0.000000D+00  E= 2.267268D+00

 Vector  113  Occ=0.000000D+00  E= 2.267581D+00

 Vector  114  Occ=0.000000D+00  E= 2.268053D+00

 Vector  115  Occ=0.000000D+00  E= 2.427404D+00

 Vector  116  Occ=0.000000D+00  E= 2.427517D+00

 Vector  117  Occ=0.000000D+00  E= 2.444408D+00

 Vector  118  Occ=0.000000D+00  E= 2.444558D+00

 Vector  119  Occ=0.000000D+00  E= 2.444656D+00

 Vector  120  Occ=0.000000D+00  E= 2.485736D+00

 Vector  121  Occ=0.000000D+00  E= 2.485945D+00

 Vector  122  Occ=0.000000D+00  E= 2.486027D+00

 Vector  123  Occ=0.000000D+00  E= 2.664384D+00

 Vector  124  Occ=0.000000D+00  E= 2.686911D+00

 Vector  125  Occ=0.000000D+00  E= 2.687144D+00

 Vector  126  Occ=0.000000D+00  E= 2.687363D+00

 Vector  127  Occ=0.000000D+00  E= 2.915059D+00

 Vector  128  Occ=0.000000D+00  E= 2.915206D+00

 Vector  129  Occ=0.000000D+00  E= 2.915322D+00

 Vector  130  Occ=0.000000D+00  E= 2.921828D+00

 Vector  131  Occ=0.000000D+00  E= 2.921965D+00

 Vector  132  Occ=0.000000D+00  E= 2.951650D+00

 Vector  133  Occ=0.000000D+00  E= 2.951805D+00

 Vector  134  Occ=0.000000D+00  E= 2.951823D+00

     Multipole analysis of the density
     ---------------------------------

     L   x y z        total         alpha         beta         nuclear
     -   - - -        -----         -----         ----         -------
     0   0 0 0     -0.000000    -25.000000    -25.000000     50.000000

     1   1 0 0     -0.005806      0.008685      0.008685     -0.023175
     1   0 1 0     -0.001846      0.006000      0.006000     -0.013846
     1   0 0 1     -0.004825      0.001220      0.001220     -0.007264

     2   2 0 0    -31.495003   -112.034505   -112.034505    192.574007
     2   1 1 0      0.001624      0.023397      0.023397     -0.045170
     2   1 0 1      0.014257      0.024874      0.024874     -0.035491
     2   0 2 0    -31.495424   -112.083997   -112.083997    192.672570
     2   0 1 1      0.001858     -0.026509     -0.026509      0.054876

      Atom:    1  C
           isotropic =     189.8496
      Atom:    2  Si
           isotropic =     402.9794
      Atom:    3  C
           isotropic =     189.8495
      Atom:    4  C
           isotropic =     189.8930
      Atom:    5  C
           isotropic =     189.8877
      Atom:    6  H
           isotropic =      31.3424
      Atom:    7  H
           isotropic =      31.3189
      Atom:    8  H
           isotropic =      31.3500
      Atom:    9  H
           isotropic =      31.3402
      Atom:   10  H
           isotropic =      31.3406
      Atom:   11  H
           isotropic =      31.3371
      Atom:   12  H
           isotropic =      31.3485
      Atom:   13  H
           isotropic =      31.3321
      Atom:   14  H
           isotropic =      31.3268
      Atom:   15  H
           isotropic =      31.3415
      Atom:   16  H
           isotropic =      31.3225
      Atom:   17  H
           isotropic =      31.3389
 Total times  cpu:      133.9s     wall:      133.9s
